<?xml version="1.0" encoding="UTF-8"?>

<!-- generated on Κυρ 01 Ιούλ 2018 12:59:01 πμ EEST by SUMO gui Version 0.32.0
<?xml version="1.0" encoding="UTF-8"?>

<configuration xmlns:xsi="http://www.w3.org/2001/XMLSchema-instance" xsi:noNamespaceSchemaLocation="http://sumo.dlr.de/xsd/sumoConfiguration.xsd">

    <input>
        <net-file value="/home/coinlab/PycharmProjects/crowd_rl/gym_traffic/envs/config/simple/traffic.net.xml"/>
        <route-files value="tmp.rou.xml"/>
        <additional-files value="/home/coinlab/PycharmProjects/crowd_rl/gym_traffic/envs/config/simple/traffic.add.xml"/>
    </input>

    <traci_server>
        <remote-port value="48128"/>
    </traci_server>

    <gui_only>
        <gui-settings-file value="/home/coinlab/PycharmProjects/crowd_rl/gym_traffic/envs/config/simple/view.settings.xml"/>
        <quit-on-end value="true"/>
        <start value="true"/>
    </gui_only>

</configuration>
-->

<detector xmlns:xsi="http://www.w3.org/2001/XMLSchema-instance" xsi:noNamespaceSchemaLocation="http://sumo.dlr.de/xsd/det_e1_file.xsd">
</detector>
